data.lj.lammps - created by mBuild; units = lj
#Normalization factors: sigma - 1.000E+00 (angstrom), epsilon - 1.000E+00 (kcal/mol), mass - 1.000E+00 (amu)
1000 atoms
0 bonds
0 angles
0 dihedrals
0 impropers

1 atom types

0.000000 20.000000 xlo xhi
0.000000 20.000000 ylo yhi
0.000000 20.000000 zlo zhi

Masses

1	1.000000	# LJ

Atoms # full

1	1	1	0.0000e+00	15.180500	15.960986	17.996929
2	1	1	0.0000e+00	17.165043	16.565125	4.369002
3	1	1	0.0000e+00	5.199996	12.209513	17.999701
4	1	1	0.0000e+00	11.901444	8.469921	10.745088
5	1	1	0.0000e+00	6.408964	3.320070	15.074246
6	1	1	0.0000e+00	11.281638	3.473659	10.996674
7	1	1	0.0000e+00	11.152707	6.535825	15.663581
8	1	1	0.0000e+00	11.145863	13.710883	16.637789
9	1	1	0.0000e+00	17.809350	12.958847	4.092354
10	1	1	0.0000e+00	7.272624	7.960872	12.318060
11	1	1	0.0000e+00	12.299750	12.631061	9.545843
12	1	1	0.0000e+00	17.068082	3.764471	5.184442
13	1	1	0.0000e+00	11.335203	16.781220	9.088776
14	1	1	0.0000e+00	3.989428	6.902637	4.042468
15	1	1	0.0000e+00	8.372303	15.439351	14.773757
16	1	1	0.0000e+00	5.463552	6.639460	13.824480
17	1	1	0.0000e+00	11.316384	17.395297	7.560745
18	1	1	0.0000e+00	3.565047	2.010510	9.753402
19	1	1	0.0000e+00	12.109038	8.939325	6.021181
20	1	1	0.0000e+00	8.177401	7.836650	5.747729
21	1	1	0.0000e+00	5.960678	2.909044	16.608601
22	1	1	0.0000e+00	5.229887	11.561009	14.804452
23	1	1	0.0000e+00	9.785673	11.709769	14.531287
24	1	1	0.0000e+00	10.977317	15.787718	7.404965
25	1	1	0.0000e+00	9.021166	10.440980	7.315126
26	1	1	0.0000e+00	7.357302	16.778775	15.393116
27	1	1	0.0000e+00	12.733096	4.460715	17.652709
28	1	1	0.0000e+00	6.236488	11.098179	3.115642
29	1	1	0.0000e+00	11.433571	9.905324	4.290589
30	1	1	0.0000e+00	11.149232	2.932189	4.482070
31	1	1	0.0000e+00	16.823538	15.027801	4.856174
32	1	1	0.0000e+00	6.477178	15.217439	17.719534
33	1	1	0.0000e+00	6.556734	5.673676	7.656116
34	1	1	0.0000e+00	2.000335	4.373032	2.000289
35	1	1	0.0000e+00	10.601768	15.303416	9.115429
36	1	1	0.0000e+00	4.711240	9.024014	4.890198
37	1	1	0.0000e+00	18.000345	4.825754	6.003232
38	1	1	0.0000e+00	2.003047	8.657201	4.565909
39	1	1	0.0000e+00	12.216761	17.287629	18.000000
40	1	1	0.0000e+00	8.699819	11.750693	8.341932
41	1	1	0.0000e+00	14.296757	12.732634	17.996240
42	1	1	0.0000e+00	3.589109	11.485864	2.016836
43	1	1	0.0000e+00	10.647671	17.631727	17.555656
44	1	1	0.0000e+00	4.475676	16.973667	15.785383
45	1	1	0.0000e+00	13.283869	6.785295	3.080820
46	1	1	0.0000e+00	9.068829	11.524783	17.913645
47	1	1	0.0000e+00	6.483175	17.993092	18.000000
48	1	1	0.0000e+00	3.640048	2.008655	12.899390
49	1	1	0.0000e+00	4.317289	11.831037	11.061324
50	1	1	0.0000e+00	6.713729	5.758362	12.407419
51	1	1	0.0000e+00	5.503786	17.980007	10.067298
52	1	1	0.0000e+00	9.950823	12.681619	2.000306
53	1	1	0.0000e+00	4.843451	16.515981	2.017489
54	1	1	0.0000e+00	14.858683	16.397805	10.703581
55	1	1	0.0000e+00	5.050408	1.995434	6.959656
56	1	1	0.0000e+00	12.458444	5.785574	14.973347
57	1	1	0.0000e+00	3.656235	12.908556	4.070230
58	1	1	0.0000e+00	4.649291	9.145277	8.852995
59	1	1	0.0000e+00	5.951218	17.809017	11.639557
60	1	1	0.0000e+00	15.134947	17.551408	15.579255
61	1	1	0.0000e+00	15.651910	8.219284	7.598589
62	1	1	0.0000e+00	12.974983	5.767423	10.547058
63	1	1	0.0000e+00	18.000001	11.926895	2.810938
64	1	1	0.0000e+00	13.127858	17.997327	15.468581
65	1	1	0.0000e+00	6.350065	10.901096	5.791005
66	1	1	0.0000e+00	6.591185	12.806965	2.337225
67	1	1	0.0000e+00	7.094857	7.917659	4.059372
68	1	1	0.0000e+00	12.172910	13.453983	4.112862
69	1	1	0.0000e+00	6.652893	2.469992	4.232070
70	1	1	0.0000e+00	14.738399	2.777903	17.998133
71	1	1	0.0000e+00	14.096582	14.998439	3.137530
72	1	1	0.0000e+00	17.994404	17.332129	16.171801
73	1	1	0.0000e+00	8.885688	10.204854	13.351115
74	1	1	0.0000e+00	3.629647	8.759440	1.993451
75	1	1	0.0000e+00	17.897457	13.382293	14.742990
76	1	1	0.0000e+00	15.059666	13.759926	13.036027
77	1	1	0.0000e+00	8.940459	13.957180	2.274789
78	1	1	0.0000e+00	10.156541	10.269321	17.999099
79	1	1	0.0000e+00	2.327273	14.937633	16.128510
80	1	1	0.0000e+00	16.450366	8.888605	8.872099
81	1	1	0.0000e+00	5.094342	12.509339	16.304397
82	1	1	0.0000e+00	3.563756	14.703767	18.031702
83	1	1	0.0000e+00	4.054233	8.572325	17.409629
84	1	1	0.0000e+00	12.317542	2.000948	7.511605
85	1	1	0.0000e+00	8.056470	11.482521	14.150363
86	1	1	0.0000e+00	3.558278	3.077864	4.501071
87	1	1	0.0000e+00	5.492010	6.645326	6.689781
88	1	1	0.0000e+00	14.559207	3.925209	14.467711
89	1	1	0.0000e+00	6.798413	12.465852	4.120291
90	1	1	0.0000e+00	17.780481	3.706139	17.308171
91	1	1	0.0000e+00	14.288516	17.850684	11.209062
92	1	1	0.0000e+00	2.717769	3.950212	16.191716
93	1	1	0.0000e+00	10.150896	12.670498	17.429049
94	1	1	0.0000e+00	15.832042	9.517903	3.572050
95	1	1	0.0000e+00	2.100222	10.015410	6.244716
96	1	1	0.0000e+00	9.903811	18.011868	11.852887
97	1	1	0.0000e+00	5.885384	8.870391	3.477078
98	1	1	0.0000e+00	7.550159	2.355626	14.382682
99	1	1	0.0000e+00	13.608402	5.394874	8.443223
100	1	1	0.0000e+00	4.595095	13.951996	3.081148
101	1	1	0.0000e+00	12.070882	17.867075	10.081323
102	1	1	0.0000e+00	10.747210	16.909095	12.928651
103	1	1	0.0000e+00	15.446283	6.434110	9.988849
104	1	1	0.0000e+00	4.320929	5.949682	8.991167
105	1	1	0.0000e+00	3.717086	4.494713	15.003188
106	1	1	0.0000e+00	13.342744	3.018051	2.964476
107	1	1	0.0000e+00	6.619165	5.390535	14.007945
108	1	1	0.0000e+00	8.679894	8.948136	14.468730
109	1	1	0.0000e+00	8.678460	13.019208	9.382889
110	1	1	0.0000e+00	17.988024	7.615443	2.005716
111	1	1	0.0000e+00	3.959010	2.826254	17.311983
112	1	1	0.0000e+00	5.495053	5.850565	16.344623
113	1	1	0.0000e+00	13.161042	4.496683	15.730650
114	1	1	0.0000e+00	10.009636	13.553580	14.692980
115	1	1	0.0000e+00	14.012061	4.673266	9.869131
116	1	1	0.0000e+00	3.999465	13.215364	17.485016
117	1	1	0.0000e+00	10.420650	2.967637	14.397427
118	1	1	0.0000e+00	3.642170	11.572212	8.068310
119	1	1	0.0000e+00	6.467187	17.286978	6.770151
120	1	1	0.0000e+00	13.459996	8.238600	6.628657
121	1	1	0.0000e+00	14.206190	4.039538	2.004335
122	1	1	0.0000e+00	13.942041	9.259305	16.286333
123	1	1	0.0000e+00	6.056608	17.588569	2.299660
124	1	1	0.0000e+00	8.707806	8.326695	16.464131
125	1	1	0.0000e+00	12.959859	15.392582	2.010450
126	1	1	0.0000e+00	3.413505	5.419700	13.672960
127	1	1	0.0000e+00	17.365582	2.077029	14.928749
128	1	1	0.0000e+00	4.335703	9.415488	3.333230
129	1	1	0.0000e+00	6.755985	10.094130	17.242614
130	1	1	0.0000e+00	13.026651	12.821279	15.063050
131	1	1	0.0000e+00	15.341848	9.390400	2.004225
132	1	1	0.0000e+00	2.604796	4.678001	3.491265
133	1	1	0.0000e+00	14.530616	8.568136	3.249828
134	1	1	0.0000e+00	6.245622	11.089300	16.031168
135	1	1	0.0000e+00	3.396630	11.687000	17.328094
136	1	1	0.0000e+00	10.806188	16.582608	5.704976
137	1	1	0.0000e+00	15.500194	14.451415	2.471879
138	1	1	0.0000e+00	6.364269	7.939056	1.999343
139	1	1	0.0000e+00	10.508900	9.124954	15.216623
140	1	1	0.0000e+00	9.901720	13.396041	10.385768
141	1	1	0.0000e+00	12.163415	9.313718	15.456802
142	1	1	0.0000e+00	6.133759	10.997027	7.412158
143	1	1	0.0000e+00	11.423471	4.487460	13.119279
144	1	1	0.0000e+00	3.641762	3.250912	8.160634
145	1	1	0.0000e+00	2.621990	8.851026	13.793747
146	1	1	0.0000e+00	1.998828	4.997303	14.408407
147	1	1	0.0000e+00	7.513566	10.304055	7.965629
148	1	1	0.0000e+00	15.860392	17.263331	3.624898
149	1	1	0.0000e+00	11.379152	2.853689	17.858814
150	1	1	0.0000e+00	3.233841	16.553802	11.707824
151	1	1	0.0000e+00	10.558247	10.595325	8.472748
152	1	1	0.0000e+00	18.000566	16.599963	13.389534
153	1	1	0.0000e+00	11.571435	3.942161	15.063976
154	1	1	0.0000e+00	15.061728	8.015583	10.316896
155	1	1	0.0000e+00	9.184229	14.325676	6.247907
156	1	1	0.0000e+00	5.113335	17.816320	17.049967
157	1	1	0.0000e+00	17.997403	9.867258	14.365570
158	1	1	0.0000e+00	6.602911	5.865431	4.337555
159	1	1	0.0000e+00	7.465877	12.490525	12.961286
160	1	1	0.0000e+00	3.213327	2.954112	11.077913
161	1	1	0.0000e+00	17.952080	15.442070	16.078618
162	1	1	0.0000e+00	5.358912	14.937783	2.003976
163	1	1	0.0000e+00	16.371567	12.657270	8.807339
164	1	1	0.0000e+00	7.047426	4.358859	3.843294
165	1	1	0.0000e+00	15.980370	12.626931	7.211738
166	1	1	0.0000e+00	11.530789	12.934099	11.249702
167	1	1	0.0000e+00	15.952764	4.171014	6.923872
168	1	1	0.0000e+00	8.194121	6.597930	9.497916
169	1	1	0.0000e+00	5.075444	15.821722	9.981049
170	1	1	0.0000e+00	17.999805	7.053019	14.354799
171	1	1	0.0000e+00	16.095712	4.266358	3.425084
172	1	1	0.0000e+00	8.043586	5.181303	8.514210
173	1	1	0.0000e+00	16.340936	9.709279	7.445982
174	1	1	0.0000e+00	14.072590	17.988400	6.023615
175	1	1	0.0000e+00	4.698986	17.705020	7.620712
176	1	1	0.0000e+00	14.661859	3.640438	10.976496
177	1	1	0.0000e+00	16.861292	6.450667	2.189878
178	1	1	0.0000e+00	1.997784	3.581595	4.551613
179	1	1	0.0000e+00	17.996671	14.138923	8.558033
180	1	1	0.0000e+00	2.003069	13.947848	14.849530
181	1	1	0.0000e+00	6.229886	3.125488	11.386526
182	1	1	0.0000e+00	14.941299	16.573363	2.005573
183	1	1	0.0000e+00	13.504046	17.072609	9.998251
184	1	1	0.0000e+00	10.441369	10.995618	2.576796
185	1	1	0.0000e+00	6.074419	9.956340	8.691805
186	1	1	0.0000e+00	9.754054	13.618733	4.072028
187	1	1	0.0000e+00	17.677593	15.082737	12.850360
188	1	1	0.0000e+00	6.189224	8.460953	9.383877
189	1	1	0.0000e+00	9.793577	10.251707	11.975232
190	1	1	0.0000e+00	4.857975	16.594491	11.420654
191	1	1	0.0000e+00	4.439632	11.468578	5.142420
192	1	1	0.0000e+00	6.528894	14.526641	11.001051
193	1	1	0.0000e+00	2.328403	2.016667	5.819251
194	1	1	0.0000e+00	6.666276	11.111534	12.599199
195	1	1	0.0000e+00	18.045737	11.337349	10.816352
196	1	1	0.0000e+00	13.003170	17.996638	8.731498
197	1	1	0.0000e+00	13.847650	14.984350	17.977295
198	1	1	0.0000e+00	12.469445	14.777716	16.784885
199	1	1	0.0000e+00	10.060051	4.537722	15.306578
200	1	1	0.0000e+00	16.436246	16.856025	9.150664
201	1	1	0.0000e+00	8.745400	17.033096	14.553689
202	1	1	0.0000e+00	16.757490	5.123611	13.407312
203	1	1	0.0000e+00	17.303769	13.472065	9.896643
204	1	1	0.0000e+00	6.755455	7.081456	5.436977
205	1	1	0.0000e+00	13.752835	6.772006	11.595085
206	1	1	0.0000e+00	15.593099	2.779008	12.028694
207	1	1	0.0000e+00	9.256938	3.635022	3.280563
208	1	1	0.0000e+00	4.361992	10.567085	13.824300
209	1	1	0.0000e+00	16.048120	17.398815	17.993776
210	1	1	0.0000e+00	2.011437	11.839548	2.512041
211	1	1	0.0000e+00	7.615872	13.838173	6.417826
212	1	1	0.0000e+00	10.791322	17.360891	2.000426
213	1	1	0.0000e+00	2.799633	15.528138	14.610397
214	1	1	0.0000e+00	3.210479	7.158377	16.404477
215	1	1	0.0000e+00	5.733166	2.047858	2.631082
216	1	1	0.0000e+00	8.746291	6.271805	13.548715
217	1	1	0.0000e+00	15.711147	14.894943	11.000009
218	1	1	0.0000e+00	8.330087	3.824884	9.542529
219	1	1	0.0000e+00	2.006010	15.206421	17.874376
220	1	1	0.0000e+00	7.697159	5.475984	6.481752
221	1	1	0.0000e+00	16.945709	14.869724	17.249575
222	1	1	0.0000e+00	10.366527	15.082095	15.197882
223	1	1	0.0000e+00	3.443174	9.794008	12.699811
224	1	1	0.0000e+00	2.390343	17.760565	6.570000
225	1	1	0.0000e+00	11.252751	4.144074	2.345228
226	1	1	0.0000e+00	4.160876	7.660370	12.869921
227	1	1	0.0000e+00	2.010506	2.205536	12.741868
228	1	1	0.0000e+00	2.001518	3.322160	17.535617
229	1	1	0.0000e+00	6.154825	15.953043	7.679271
230	1	1	0.0000e+00	3.138962	4.647150	7.449988
231	1	1	0.0000e+00	11.076829	13.518782	5.343283
232	1	1	0.0000e+00	9.964606	17.991994	14.002205
233	1	1	0.0000e+00	15.844215	4.842679	4.948187
234	1	1	0.0000e+00	2.002641	14.735637	13.411254
235	1	1	0.0000e+00	5.422630	11.761763	8.684502
236	1	1	0.0000e+00	11.105950	2.002332	13.251520
237	1	1	0.0000e+00	1.997841	3.811728	6.606480
238	1	1	0.0000e+00	8.816743	4.735614	5.513396
239	1	1	0.0000e+00	5.762863	8.011231	12.968098
240	1	1	0.0000e+00	1.995380	16.983588	16.529923
241	1	1	0.0000e+00	6.486447	12.782694	7.837363
242	1	1	0.0000e+00	4.533745	6.868371	17.640307
243	1	1	0.0000e+00	5.220721	5.173251	14.867766
244	1	1	0.0000e+00	7.835215	10.341277	5.345459
245	1	1	0.0000e+00	13.599038	8.933152	5.141880
246	1	1	0.0000e+00	4.084979	5.960132	7.196636
247	1	1	0.0000e+00	9.022219	2.028682	11.300101
248	1	1	0.0000e+00	9.361633	10.355295	9.579077
249	1	1	0.0000e+00	5.179253	4.888418	8.065846
250	1	1	0.0000e+00	12.623808	4.826273	2.960301
251	1	1	0.0000e+00	10.486898	6.655078	11.790379
252	1	1	0.0000e+00	13.244071	11.331501	6.524230
253	1	1	0.0000e+00	4.192857	4.320257	9.285241
254	1	1	0.0000e+00	9.819767	11.013868	16.549056
255	1	1	0.0000e+00	14.574578	13.617508	15.165655
256	1	1	0.0000e+00	14.388192	11.936518	14.797829
257	1	1	0.0000e+00	13.237273	7.231024	13.089626
258	1	1	0.0000e+00	17.666008	4.750359	2.115554
259	1	1	0.0000e+00	12.039934	12.231649	5.737846
260	1	1	0.0000e+00	7.188692	6.858651	13.536396
261	1	1	0.0000e+00	7.423436	2.040659	11.694737
262	1	1	0.0000e+00	11.843646	2.801361	9.522408
263	1	1	0.0000e+00	2.919374	9.004676	16.107917
264	1	1	0.0000e+00	17.153750	15.105668	10.234920
265	1	1	0.0000e+00	16.370730	16.605537	13.642028
266	1	1	0.0000e+00	13.852972	5.862093	4.409185
267	1	1	0.0000e+00	14.775594	13.796258	8.476045
268	1	1	0.0000e+00	9.707774	15.845240	13.894281
269	1	1	0.0000e+00	12.486059	15.104174	8.301702
270	1	1	0.0000e+00	4.571866	11.025979	3.563912
271	1	1	0.0000e+00	5.676258	13.553784	14.758481
272	1	1	0.0000e+00	10.439691	9.206841	10.589620
273	1	1	0.0000e+00	9.485642	4.132885	12.148090
274	1	1	0.0000e+00	6.720809	14.405726	7.690354
275	1	1	0.0000e+00	2.926741	12.805728	7.243154
276	1	1	0.0000e+00	7.808630	9.529548	12.316295
277	1	1	0.0000e+00	16.366210	14.495570	13.715733
278	1	1	0.0000e+00	17.259310	10.372733	5.298333
279	1	1	0.0000e+00	16.555722	5.577429	6.233466
280	1	1	0.0000e+00	4.641942	8.855703	10.479228
281	1	1	0.0000e+00	13.309847	12.682083	16.681898
282	1	1	0.0000e+00	18.000051	8.591176	3.334029
283	1	1	0.0000e+00	9.599920	11.604482	12.898153
284	1	1	0.0000e+00	7.302069	2.724378	10.204839
285	1	1	0.0000e+00	12.670142	16.430672	15.255996
286	1	1	0.0000e+00	7.374931	12.405106	5.659315
287	1	1	0.0000e+00	14.996091	15.041191	14.450390
288	1	1	0.0000e+00	12.855921	13.667821	17.937135
289	1	1	0.0000e+00	7.412418	5.620405	2.564129
290	1	1	0.0000e+00	16.517246	10.498081	16.759485
291	1	1	0.0000e+00	2.149964	14.306569	9.807077
292	1	1	0.0000e+00	17.987034	8.725321	9.498882
293	1	1	0.0000e+00	7.076818	12.756654	10.634688
294	1	1	0.0000e+00	10.671651	17.941808	4.645169
295	1	1	0.0000e+00	13.595803	7.993204	2.002869
296	1	1	0.0000e+00	10.705133	7.160258	17.119378
297	1	1	0.0000e+00	3.444167	8.048415	9.082575
298	1	1	0.0000e+00	12.001482	14.925380	15.207970
299	1	1	0.0000e+00	3.421622	8.023410	5.106631
300	1	1	0.0000e+00	5.692392	8.164255	6.089817
301	1	1	0.0000e+00	7.737719	2.710250	2.993867
302	1	1	0.0000e+00	3.333828	10.591806	16.101725
303	1	1	0.0000e+00	14.553948	10.801890	9.095353
304	1	1	0.0000e+00	4.757494	8.991719	12.109501
305	1	1	0.0000e+00	2.970048	12.717758	11.311829
306	1	1	0.0000e+00	2.423420	7.399357	10.501407
307	1	1	0.0000e+00	14.029452	16.585273	5.157679
308	1	1	0.0000e+00	17.613565	10.978275	9.275914
309	1	1	0.0000e+00	12.475293	2.005027	2.002125
310	1	1	0.0000e+00	10.282618	7.053051	13.375127
311	1	1	0.0000e+00	15.195702	9.655909	17.280049
312	1	1	0.0000e+00	2.292366	9.964901	3.606444
313	1	1	0.0000e+00	15.809111	3.358713	13.555443
314	1	1	0.0000e+00	15.807497	15.519393	12.535171
315	1	1	0.0000e+00	13.969703	7.519245	4.381873
316	1	1	0.0000e+00	11.062094	16.000739	16.372399
317	1	1	0.0000e+00	14.403448	16.000398	13.252569
318	1	1	0.0000e+00	12.520597	2.552541	13.893009
319	1	1	0.0000e+00	11.680334	7.498094	12.626090
320	1	1	0.0000e+00	4.356319	14.083574	9.598077
321	1	1	0.0000e+00	11.750423	17.999560	14.291106
322	1	1	0.0000e+00	13.855749	6.199637	14.208590
323	1	1	0.0000e+00	11.411570	17.427549	11.521342
324	1	1	0.0000e+00	15.586888	4.514011	12.080842
325	1	1	0.0000e+00	10.276794	11.492818	7.130355
326	1	1	0.0000e+00	5.117452	2.242991	12.215184
327	1	1	0.0000e+00	1.999834	4.998281	5.391808
328	1	1	0.0000e+00	10.666700	7.728336	9.945958
329	1	1	0.0000e+00	8.048882	14.082539	10.568872
330	1	1	0.0000e+00	13.137872	6.595490	17.126505
331	1	1	0.0000e+00	16.603898	11.876250	10.232547
332	1	1	0.0000e+00	11.803341	9.918156	9.989581
333	1	1	0.0000e+00	13.812904	17.641725	17.598417
334	1	1	0.0000e+00	2.019235	5.220025	11.120026
335	1	1	0.0000e+00	12.262003	10.828399	14.271059
336	1	1	0.0000e+00	6.182295	13.872480	3.526955
337	1	1	0.0000e+00	7.734911	17.986599	5.986428
338	1	1	0.0000e+00	8.016269	16.369744	7.452675
339	1	1	0.0000e+00	2.000863	13.457818	6.048316
340	1	1	0.0000e+00	2.134885	2.927056	2.761204
341	1	1	0.0000e+00	8.857233	8.848324	10.018212
342	1	1	0.0000e+00	6.913934	7.557090	7.007733
343	1	1	0.0000e+00	11.268079	12.079134	8.407643
344	1	1	0.0000e+00	4.667189	8.671194	7.272415
345	1	1	0.0000e+00	8.218515	2.003107	5.839441
346	1	1	0.0000e+00	16.167544	12.100540	15.286122
347	1	1	0.0000e+00	3.810683	5.547501	16.266120
348	1	1	0.0000e+00	7.829982	6.453914	15.978618
349	1	1	0.0000e+00	6.422069	5.570693	9.711673
350	1	1	0.0000e+00	7.785612	7.117850	2.001924
351	1	1	0.0000e+00	15.388735	6.960688	11.544386
352	1	1	0.0000e+00	15.225404	7.745374	2.002473
353	1	1	0.0000e+00	9.347184	16.032908	6.283841
354	1	1	0.0000e+00	5.830726	9.993526	10.336905
355	1	1	0.0000e+00	5.517151	14.861873	8.724166
356	1	1	0.0000e+00	9.617354	12.740030	5.451521
357	1	1	0.0000e+00	11.927634	13.571609	8.243684
358	1	1	0.0000e+00	9.924164	7.631938	15.594823
359	1	1	0.0000e+00	14.630102	10.564690	6.117002
360	1	1	0.0000e+00	10.275544	11.179607	5.523648
361	1	1	0.0000e+00	16.442043	7.749702	3.113546
362	1	1	0.0000e+00	2.001862	10.306158	13.349761
363	1	1	0.0000e+00	17.263778	11.981068	5.664150
364	1	1	0.0000e+00	15.047852	14.700149	7.085995
365	1	1	0.0000e+00	7.940422	9.376483	6.674200
366	1	1	0.0000e+00	17.645346	8.098388	8.015454
367	1	1	0.0000e+00	2.383493	16.313224	13.147622
368	1	1	0.0000e+00	11.996804	14.465851	6.864913
369	1	1	0.0000e+00	5.302159	5.210014	13.043038
370	1	1	0.0000e+00	2.000685	8.323147	8.128779
371	1	1	0.0000e+00	5.685147	4.900912	6.496569
372	1	1	0.0000e+00	7.466121	14.535260	2.725298
373	1	1	0.0000e+00	10.088453	16.105683	4.247937
374	1	1	0.0000e+00	12.544314	15.784415	12.088676
375	1	1	0.0000e+00	7.291975	9.242726	10.314976
376	1	1	0.0000e+00	17.839111	4.776119	10.700197
377	1	1	0.0000e+00	12.830899	17.917806	7.093821
378	1	1	0.0000e+00	12.158651	16.314752	10.577801
379	1	1	0.0000e+00	11.007006	15.455139	18.000000
380	1	1	0.0000e+00	6.139149	16.540703	16.805033
381	1	1	0.0000e+00	1.908166	13.965392	11.398605
382	1	1	0.0000e+00	10.274909	8.714620	16.784620
383	1	1	0.0000e+00	13.703454	5.616551	2.001472
384	1	1	0.0000e+00	7.203565	9.607508	15.085383
385	1	1	0.0000e+00	6.949525	8.951517	13.593248
386	1	1	0.0000e+00	17.496116	12.773240	11.378523
387	1	1	0.0000e+00	9.847524	5.974356	10.367458
388	1	1	0.0000e+00	13.570064	14.655360	12.795871
389	1	1	0.0000e+00	14.620186	8.776434	8.927632
390	1	1	0.0000e+00	2.928544	3.414648	13.378662
391	1	1	0.0000e+00	8.375393	13.685179	4.959883
392	1	1	0.0000e+00	12.011730	3.276358	5.842780
393	1	1	0.0000e+00	11.311393	16.057878	14.215433
394	1	1	0.0000e+00	3.397199	8.365237	11.411042
395	1	1	0.0000e+00	7.211193	9.734296	3.943933
396	1	1	0.0000e+00	16.125611	6.685725	8.498218
397	1	1	0.0000e+00	9.464159	3.309845	8.464964
398	1	1	0.0000e+00	12.961024	4.209656	11.088573
399	1	1	0.0000e+00	8.678615	2.216148	9.471534
400	1	1	0.0000e+00	14.468844	3.147541	15.915123
401	1	1	0.0000e+00	8.206360	15.337880	13.127330
402	1	1	0.0000e+00	16.654808	17.983802	14.696568
403	1	1	0.0000e+00	4.642500	13.350865	12.307215
404	1	1	0.0000e+00	12.420868	16.385854	5.443852
405	1	1	0.0000e+00	14.370913	16.565683	3.548992
406	1	1	0.0000e+00	16.497009	8.942955	18.000055
407	1	1	0.0000e+00	14.298920	17.095149	8.269035
408	1	1	0.0000e+00	17.784573	2.823428	4.009678
409	1	1	0.0000e+00	15.192215	15.541404	5.673998
410	1	1	0.0000e+00	3.972206	14.940598	4.235171
411	1	1	0.0000e+00	5.849771	14.437820	12.590992
412	1	1	0.0000e+00	5.042094	2.003511	14.607847
413	1	1	0.0000e+00	9.669621	2.590844	12.702958
414	1	1	0.0000e+00	8.473591	8.765640	4.366578
415	1	1	0.0000e+00	11.530703	9.823348	11.591307
416	1	1	0.0000e+00	12.905857	2.890300	15.458846
417	1	1	0.0000e+00	4.093655	4.727603	6.114812
418	1	1	0.0000e+00	7.267119	15.363239	5.359369
419	1	1	0.0000e+00	3.131316	17.993944	8.022632
420	1	1	0.0000e+00	9.367820	2.032664	3.646090
421	1	1	0.0000e+00	10.472663	12.448091	15.828448
422	1	1	0.0000e+00	10.948866	9.593187	7.013857
423	1	1	0.0000e+00	15.172634	12.942143	4.398993
424	1	1	0.0000e+00	12.689910	11.277911	8.693776
425	1	1	0.0000e+00	16.459027	15.460536	6.724901
426	1	1	0.0000e+00	15.925717	10.177476	9.754364
427	1	1	0.0000e+00	15.080411	12.222345	9.738288
428	1	1	0.0000e+00	9.421802	2.990698	16.697938
429	1	1	0.0000e+00	5.399718	7.563535	4.583830
430	1	1	0.0000e+00	3.214876	13.408719	2.365431
431	1	1	0.0000e+00	9.438765	15.858566	8.093042
432	1	1	0.0000e+00	2.002882	2.521359	9.650168
433	1	1	0.0000e+00	17.832560	16.413870	2.863176
434	1	1	0.0000e+00	9.814245	16.625547	9.665670
435	1	1	0.0000e+00	14.733979	3.401091	3.751187
436	1	1	0.0000e+00	15.229615	17.043591	12.293801
437	1	1	0.0000e+00	5.766746	11.795767	10.296329
438	1	1	0.0000e+00	16.937565	10.780766	2.021744
439	1	1	0.0000e+00	2.006618	7.919182	15.009590
440	1	1	0.0000e+00	11.777547	4.742822	10.072411
441	1	1	0.0000e+00	13.247535	4.328663	4.401289
442	1	1	0.0000e+00	4.444143	12.773354	14.006856
443	1	1	0.0000e+00	14.210937	5.403360	16.623192
444	1	1	0.0000e+00	8.735963	17.015318	5.107541
445	1	1	0.0000e+00	11.335203	4.355527	7.886996
446	1	1	0.0000e+00	15.676953	4.363609	17.601756
447	1	1	0.0000e+00	12.908599	8.370130	3.453187
448	1	1	0.0000e+00	7.552139	11.741777	7.159783
449	1	1	0.0000e+00	7.234525	6.281955	10.933812
450	1	1	0.0000e+00	9.626968	4.777557	9.194798
451	1	1	0.0000e+00	5.257132	8.425952	14.478290
452	1	1	0.0000e+00	3.761247	2.715211	2.917674
453	1	1	0.0000e+00	8.765671	11.483207	6.065028
454	1	1	0.0000e+00	7.736790	3.232711	8.124078
455	1	1	0.0000e+00	15.553695	8.101337	4.453717
456	1	1	0.0000e+00	7.890340	7.792289	10.803475
457	1	1	0.0000e+00	13.852563	15.219247	11.275230
458	1	1	0.0000e+00	7.282702	13.848994	9.132008
459	1	1	0.0000e+00	5.994465	6.885385	3.205378
460	1	1	0.0000e+00	6.837698	15.363163	9.613553
461	1	1	0.0000e+00	5.460333	4.037462	4.156025
462	1	1	0.0000e+00	2.205858	6.147605	15.573977
463	1	1	0.0000e+00	12.036747	7.939832	16.537994
464	1	1	0.0000e+00	2.800936	7.332355	1.996065
465	1	1	0.0000e+00	8.267268	13.803264	14.911299
466	1	1	0.0000e+00	2.001949	12.322636	15.101831
467	1	1	0.0000e+00	11.172992	11.554711	12.038511
468	1	1	0.0000e+00	12.029488	14.061002	12.763801
469	1	1	0.0000e+00	14.308445	18.000089	4.352917
470	1	1	0.0000e+00	4.828091	3.625592	7.078835
471	1	1	0.0000e+00	9.216111	9.192018	8.438228
472	1	1	0.0000e+00	4.405328	17.931302	6.016371
473	1	1	0.0000e+00	4.089830	17.993780	14.557685
474	1	1	0.0000e+00	11.304975	11.453944	18.000857
475	1	1	0.0000e+00	7.291806	11.456273	17.998311
476	1	1	0.0000e+00	13.384037	9.710038	9.469336
477	1	1	0.0000e+00	8.090383	15.481550	17.570035
478	1	1	0.0000e+00	14.095981	15.462653	8.184907
479	1	1	0.0000e+00	10.429989	14.609769	2.001554
480	1	1	0.0000e+00	11.734037	6.066509	7.543047
481	1	1	0.0000e+00	10.251337	13.691168	11.936946
482	1	1	0.0000e+00	13.743893	11.483238	10.342793
483	1	1	0.0000e+00	2.471595	6.742916	13.955974
484	1	1	0.0000e+00	4.348308	4.227866	10.917517
485	1	1	0.0000e+00	13.420279	14.565890	14.461134
486	1	1	0.0000e+00	6.600297	2.440984	6.619483
487	1	1	0.0000e+00	11.846769	10.638111	5.694900
488	1	1	0.0000e+00	16.486868	17.994953	12.773937
489	1	1	0.0000e+00	16.056618	3.965351	8.557188
490	1	1	0.0000e+00	8.851883	15.254878	4.924226
491	1	1	0.0000e+00	8.945624	14.671075	11.817561
492	1	1	0.0000e+00	2.002612	10.156983	11.097493
493	1	1	0.0000e+00	5.683757	9.894045	13.123552
494	1	1	0.0000e+00	2.821800	12.943134	13.835059
495	1	1	0.0000e+00	7.094920	16.725414	8.765264
496	1	1	0.0000e+00	15.128462	9.579126	12.709229
497	1	1	0.0000e+00	3.903212	9.348650	14.828494
498	1	1	0.0000e+00	3.502771	14.330041	7.007306
499	1	1	0.0000e+00	8.560546	5.023311	3.846515
500	1	1	0.0000e+00	17.857877	16.039498	9.082773
501	1	1	0.0000e+00	5.186699	2.748190	8.416821
502	1	1	0.0000e+00	12.645024	4.119335	8.839892
503	1	1	0.0000e+00	4.403910	8.148886	15.856520
504	1	1	0.0000e+00	10.924450	12.722102	3.331307
505	1	1	0.0000e+00	6.960803	15.887851	14.063643
506	1	1	0.0000e+00	3.657992	10.197285	17.985679
507	1	1	0.0000e+00	16.540432	8.076870	11.998580
508	1	1	0.0000e+00	10.875171	9.060041	13.609266
509	1	1	0.0000e+00	7.817292	15.681745	10.890215
510	1	1	0.0000e+00	12.456303	8.590824	13.583265
511	1	1	0.0000e+00	2.000000	15.074352	4.544160
512	1	1	0.0000e+00	17.987218	13.473986	12.785156
513	1	1	0.0000e+00	12.427407	7.771427	4.910691
514	1	1	0.0000e+00	6.263147	3.798163	12.889898
515	1	1	0.0000e+00	10.076361	4.178552	4.604148
516	1	1	0.0000e+00	16.195979	12.865478	13.826991
517	1	1	0.0000e+00	9.784940	5.827536	4.605170
518	1	1	0.0000e+00	3.978875	5.254734	12.151952
519	1	1	0.0000e+00	7.023272	4.014357	6.864437
520	1	1	0.0000e+00	13.633041	7.572868	8.164955
521	1	1	0.0000e+00	12.466531	15.271634	3.667175
522	1	1	0.0000e+00	13.613396	14.163330	4.466760
523	1	1	0.0000e+00	14.891813	15.174141	9.597556
524	1	1	0.0000e+00	12.835895	7.407923	14.679280
525	1	1	0.0000e+00	5.645755	3.678882	9.733660
526	1	1	0.0000e+00	9.521939	12.955702	7.105709
527	1	1	0.0000e+00	3.645098	15.768549	2.855835
528	1	1	0.0000e+00	2.049390	3.393410	14.793803
529	1	1	0.0000e+00	15.220789	11.435840	13.264659
530	1	1	0.0000e+00	15.161965	16.103718	16.355215
531	1	1	0.0000e+00	15.965669	10.836875	11.343975
532	1	1	0.0000e+00	8.840463	17.875403	10.113353
533	1	1	0.0000e+00	10.796127	12.698520	13.132690
534	1	1	0.0000e+00	7.512435	17.995215	7.820406
535	1	1	0.0000e+00	9.165491	14.532817	8.981889
536	1	1	0.0000e+00	12.612465	5.613106	13.298960
537	1	1	0.0000e+00	10.677607	4.959016	11.363306
538	1	1	0.0000e+00	9.230077	8.132666	7.168283
539	1	1	0.0000e+00	8.802774	9.010478	2.192968
540	1	1	0.0000e+00	17.618436	12.426973	7.205717
541	1	1	0.0000e+00	5.683411	8.398552	17.972677
542	1	1	0.0000e+00	3.285400	16.429865	4.323775
543	1	1	0.0000e+00	11.443597	15.814919	2.495804
544	1	1	0.0000e+00	5.543301	15.047406	14.087439
545	1	1	0.0000e+00	2.003424	10.418862	9.338081
546	1	1	0.0000e+00	2.839281	17.091677	15.119622
547	1	1	0.0000e+00	13.597744	9.023505	14.693083
548	1	1	0.0000e+00	15.361536	1.999945	16.691050
549	1	1	0.0000e+00	16.689902	11.277078	7.944408
550	1	1	0.0000e+00	14.622488	10.074407	4.545430
551	1	1	0.0000e+00	16.361985	14.223791	8.331497
552	1	1	0.0000e+00	6.670932	15.754495	12.071784
553	1	1	0.0000e+00	3.974068	16.247783	8.797092
554	1	1	0.0000e+00	7.746176	10.629501	9.559542
555	1	1	0.0000e+00	12.011397	3.109140	12.428469
556	1	1	0.0000e+00	15.721812	15.732351	8.174846
557	1	1	0.0000e+00	7.034491	4.306259	10.570999
558	1	1	0.0000e+00	9.501994	7.777026	11.094721
559	1	1	0.0000e+00	17.984507	10.848907	12.366243
560	1	1	0.0000e+00	7.145318	15.374711	16.224449
561	1	1	0.0000e+00	8.359076	12.982093	3.469732
562	1	1	0.0000e+00	13.062384	2.899836	17.243876
563	1	1	0.0000e+00	13.008336	10.413051	4.553715
564	1	1	0.0000e+00	12.403136	17.679662	12.812028
565	1	1	0.0000e+00	9.771154	6.176001	14.840860
566	1	1	0.0000e+00	2.151649	7.024318	4.686346
567	1	1	0.0000e+00	6.751482	15.827222	1.999660
568	1	1	0.0000e+00	5.671931	5.763433	2.000761
569	1	1	0.0000e+00	14.915486	5.543652	6.349477
570	1	1	0.0000e+00	2.707191	5.960815	17.413916
571	1	1	0.0000e+00	2.005272	11.652230	6.518746
572	1	1	0.0000e+00	5.038409	16.555827	13.652879
573	1	1	0.0000e+00	4.016864	17.999622	11.609549
574	1	1	0.0000e+00	17.992680	14.338751	11.418460
575	1	1	0.0000e+00	2.609763	16.247015	5.815136
576	1	1	0.0000e+00	11.222071	5.868883	17.999112
577	1	1	0.0000e+00	6.888890	13.799583	15.838627
578	1	1	0.0000e+00	5.064529	10.758293	2.013494
579	1	1	0.0000e+00	8.121812	17.204888	11.434022
580	1	1	0.0000e+00	4.557314	10.833219	9.723478
581	1	1	0.0000e+00	2.001240	14.121308	7.571174
582	1	1	0.0000e+00	16.971680	13.898356	6.837694
583	1	1	0.0000e+00	5.237406	9.124576	1.986733
584	1	1	0.0000e+00	10.966115	7.005764	4.919644
585	1	1	0.0000e+00	7.309876	12.150697	9.114041
586	1	1	0.0000e+00	3.207673	16.381251	7.342139
587	1	1	0.0000e+00	14.417027	2.004437	7.674681
588	1	1	0.0000e+00	4.779854	10.965830	16.782873
589	1	1	0.0000e+00	8.191378	3.345596	4.885977
590	1	1	0.0000e+00	4.319395	11.784077	12.708956
591	1	1	0.0000e+00	4.773327	2.655565	10.666414
592	1	1	0.0000e+00	14.846553	5.152193	13.408660
593	1	1	0.0000e+00	13.619083	3.132799	6.775788
594	1	1	0.0000e+00	8.252553	5.284861	12.048182
595	1	1	0.0000e+00	8.204249	11.339541	12.049163
596	1	1	0.0000e+00	8.882973	12.835491	13.727558
597	1	1	0.0000e+00	14.865885	6.778204	7.441444
598	1	1	0.0000e+00	3.097782	13.591061	8.677532
599	1	1	0.0000e+00	15.372931	8.018202	16.735166
600	1	1	0.0000e+00	4.065496	9.884725	6.139670
601	1	1	0.0000e+00	17.061929	6.734095	9.849431
602	1	1	0.0000e+00	17.025316	5.808707	14.883820
603	1	1	0.0000e+00	10.759734	9.047846	8.988054
604	1	1	0.0000e+00	12.767057	6.300902	5.567641
605	1	1	0.0000e+00	4.568599	10.269645	7.658374
606	1	1	0.0000e+00	3.606451	17.414861	13.093568
607	1	1	0.0000e+00	8.537348	13.255268	16.977974
608	1	1	0.0000e+00	12.397608	11.056597	3.169526
609	1	1	0.0000e+00	15.419530	4.678583	15.669833
610	1	1	0.0000e+00	4.328120	2.000465	5.476546
611	1	1	0.0000e+00	8.538190	10.313578	3.160263
612	1	1	0.0000e+00	16.559134	5.741487	11.565771
613	1	1	0.0000e+00	9.306596	10.196407	4.615758
614	1	1	0.0000e+00	17.174845	8.447937	14.053910
615	1	1	0.0000e+00	9.337198	7.632900	8.912674
616	1	1	0.0000e+00	9.339060	7.461222	17.999881
617	1	1	0.0000e+00	5.109291	5.586420	3.695302
618	1	1	0.0000e+00	8.787056	17.288487	8.575178
619	1	1	0.0000e+00	13.170710	12.890797	11.248204
620	1	1	0.0000e+00	13.286236	2.610027	8.695986
621	1	1	0.0000e+00	13.598878	13.197456	13.564014
622	1	1	0.0000e+00	16.773754	2.433075	10.929944
623	1	1	0.0000e+00	13.553862	2.574456	11.869846
624	1	1	0.0000e+00	17.072155	11.487655	4.102440
625	1	1	0.0000e+00	5.206594	13.277886	10.760478
626	1	1	0.0000e+00	6.713036	17.998486	16.287999